 Set GAUSS_PDEF to "16".
 Entering Gaussian System, Link 0=g16
 Initial command:
 /mnt/sfs_turbo/root/program/g16/l1.exe "/mnt/sfs_turbo/root/tmp/216632_752_158528/Gau-2456894.inp" -scrdir="/mnt/sfs_turbo/root/tmp/216632_752_158528/"
 Default is to use a total of  16 processors:
                               16 via shared-memory
                                1 via Linda
 Entering Link 1 = /mnt/sfs_turbo/program/g16/l1.exe PID=   2456898.
  
 Copyright (c) 1988-2019, Gaussian, Inc.  All Rights Reserved.
  
 This is part of the Gaussian(R) 16 program.  It is based on
 the Gaussian(R) 09 system (copyright 2009, Gaussian, Inc.),
 the Gaussian(R) 03 system (copyright 2003, Gaussian, Inc.),
 the Gaussian(R) 98 system (copyright 1998, Gaussian, Inc.),
 the Gaussian(R) 94 system (copyright 1995, Gaussian, Inc.),
 the Gaussian 92(TM) system (copyright 1992, Gaussian, Inc.),
 the Gaussian 90(TM) system (copyright 1990, Gaussian, Inc.),
 the Gaussian 88(TM) system (copyright 1988, Gaussian, Inc.),
 the Gaussian 86(TM) system (copyright 1986, Carnegie Mellon
 University), and the Gaussian 82(TM) system (copyright 1983,
 Carnegie Mellon University). Gaussian is a federally registered
 trademark of Gaussian, Inc.
  
 This software contains proprietary and confidential information,
 including trade secrets, belonging to Gaussian, Inc.
  
 This software is provided under written license and may be
 used, copied, transmitted, or stored only in accord with that
 written license.
  
 The following legend is applicable only to US Government
 contracts under FAR:
  
                    RESTRICTED RIGHTS LEGEND
  
 Use, reproduction and disclosure by the US Government is
 subject to restrictions as set forth in subparagraphs (a)
 and (c) of the Commercial Computer Software - Restricted
 Rights clause in FAR 52.227-19.
  
 Gaussian, Inc.
 340 Quinnipiac St., Bldg. 40, Wallingford CT 06492
  
  
 ---------------------------------------------------------------
 Warning -- This program may not be used in any manner that
 competes with the business of Gaussian, Inc. or will provide
 assistance to any competitor of Gaussian, Inc.  The licensee
 of this program is prohibited from giving any competitor of
 Gaussian, Inc. access to this program.  By using this program,
 the user acknowledges that Gaussian, Inc. is engaged in the
 business of creating and licensing software in the field of
 computational chemistry and represents and warrants to the
 licensee that it is not a competitor of Gaussian, Inc. and that
 it will not use this program in any manner prohibited above.
 ---------------------------------------------------------------
  

 Cite this work as:
 Gaussian 16, Revision C.01,
 M. J. Frisch, G. W. Trucks, H. B. Schlegel, G. E. Scuseria, 
 M. A. Robb, J. R. Cheeseman, G. Scalmani, V. Barone, 
 G. A. Petersson, H. Nakatsuji, X. Li, M. Caricato, A. V. Marenich, 
 J. Bloino, B. G. Janesko, R. Gomperts, B. Mennucci, H. P. Hratchian, 
 J. V. Ortiz, A. F. Izmaylov, J. L. Sonnenberg, D. Williams-Young, 
 F. Ding, F. Lipparini, F. Egidi, J. Goings, B. Peng, A. Petrone, 
 T. Henderson, D. Ranasinghe, V. G. Zakrzewski, J. Gao, N. Rega, 
 G. Zheng, W. Liang, M. Hada, M. Ehara, K. Toyota, R. Fukuda, 
 J. Hasegawa, M. Ishida, T. Nakajima, Y. Honda, O. Kitao, H. Nakai, 
 T. Vreven, K. Throssell, J. A. Montgomery, Jr., J. E. Peralta, 
 F. Ogliaro, M. J. Bearpark, J. J. Heyd, E. N. Brothers, K. N. Kudin, 
 V. N. Staroverov, T. A. Keith, R. Kobayashi, J. Normand, 
 K. Raghavachari, A. P. Rendell, J. C. Burant, S. S. Iyengar, 
 J. Tomasi, M. Cossi, J. M. Millam, M. Klene, C. Adamo, R. Cammi, 
 J. W. Ochterski, R. L. Martin, K. Morokuma, O. Farkas, 
 J. B. Foresman, and D. J. Fox, Gaussian, Inc., Wallingford CT, 2019.
 
 ******************************************
 Gaussian 16:  ES64L-G16RevC.01  3-Jul-2019
                20-Jan-2026 
 ******************************************
 %Mem=48GB
 %NProcShared=16
 Will use up to   16 processors via shared memory.
 %chk=2209621.chk
 ---------------------------------------------
 #SP B3LYP/def2SVP Force geom=PrintInputOrient
 ---------------------------------------------
 1/10=4,30=1,38=1/1,3;
 2/9=2000,12=2,17=6,18=5,40=1/2;
 3/5=43,7=101,11=2,25=1,30=1,71=2,74=-5,140=1/1,2,3;
 4//1;
 5/5=2,38=5,98=1/2;
 8/6=4,10=90,11=11/1;
 11/6=1,8=1,9=11,15=111,16=1/1,2,10;
 10/6=1/2;
 6/7=2,8=2,9=2,10=2,28=1/1;
 7/8=1,10=1,25=1/1,2,3,16;
 1/10=4,30=1/3;
 99//99;
 -------------------------
 Title of your calculation
 -------------------------
 Symbolic Z-matrix:
 Charge =  0 Multiplicity = 1
 F                     0.4624    0.        0. 
 H                    -0.4624    0.        0. 
 

 GradGradGradGradGradGradGradGradGradGradGradGradGradGradGradGradGradGrad
 Berny optimization.
 Initialization pass.
 Trust Radius=3.00D-01 FncErr=1.00D-07 GrdErr=1.00D-07 EigMax=2.50D+02 EigMin=1.00D-04
 Number of steps in this run=      2 maximum allowed number of steps=      2.
 GradGradGradGradGradGradGradGradGradGradGradGradGradGradGradGradGradGrad

                          Input orientation:                          
 ---------------------------------------------------------------------
 Center     Atomic      Atomic             Coordinates (Angstroms)
 Number     Number       Type             X           Y           Z
 ---------------------------------------------------------------------
      1          9           0        0.462400    0.000000    0.000000
      2          1           0       -0.462400    0.000000    0.000000
 ---------------------------------------------------------------------
 Stoichiometry    FH
 Framework group  C*V[C*(HF)]
 Deg. of freedom     1
 Full point group                 C*V     NOp   4
 Largest Abelian subgroup         C2V     NOp   4
 Largest concise Abelian subgroup C1      NOp   1
                         Standard orientation:                         
 ---------------------------------------------------------------------
 Center     Atomic      Atomic             Coordinates (Angstroms)
 Number     Number       Type             X           Y           Z
 ---------------------------------------------------------------------
      1          9           0        0.000000    0.000000    0.092480
      2          1           0        0.000000    0.000000   -0.832320
 ---------------------------------------------------------------------
 Rotational constants (GHZ):           0.0000000         617.4254585         617.4254585
 Standard basis: def2SVP (5D, 7F)
 There are    11 symmetry adapted cartesian basis functions of A1  symmetry.
 There are     1 symmetry adapted cartesian basis functions of A2  symmetry.
 There are     4 symmetry adapted cartesian basis functions of B1  symmetry.
 There are     4 symmetry adapted cartesian basis functions of B2  symmetry.
 There are    10 symmetry adapted basis functions of A1  symmetry.
 There are     1 symmetry adapted basis functions of A2  symmetry.
 There are     4 symmetry adapted basis functions of B1  symmetry.
 There are     4 symmetry adapted basis functions of B2  symmetry.
    19 basis functions,    32 primitive gaussians,    20 cartesian basis functions
     5 alpha electrons        5 beta electrons
       nuclear repulsion energy         5.1498647256 Hartrees.
 NAtoms=    2 NActive=    2 NUniq=    2 SFac= 1.00D+00 NAtFMM=   60 NAOKFM=F Big=F
 Integral buffers will be    131072 words long.
 Raffenetti 2 integral format.
 Two-electron integral symmetry is turned on.
 One-electron integrals computed using PRISM.
   4 Symmetry operations used in ECPInt.
 ECPInt:  NShTT=      45 NPrTT=     169 LenC2=      46 LenP2D=     169.
 LDataN:  DoStor=T MaxTD1= 4 Len=   56
 NBasis=    19 RedAO= T EigKep=  4.96D-02  NBF=    10     1     4     4
 NBsUse=    19 1.00D-06 EigRej= -1.00D+00 NBFU=    10     1     4     4
 ExpMin= 1.22D-01 ExpMax= 2.89D+03 ExpMxC= 4.35D+02 IAcc=3 IRadAn=         5 AccDes= 0.00D+00
 Harris functional with IExCor=  402 and IRadAn=       5 diagonalized for initial guess.
 HarFok:  IExCor=  402 AccDes= 0.00D+00 IRadAn=         5 IDoV= 1 UseB2=F ITyADJ=14
 ICtDFT=  3500011 ScaDFX=  1.000000  1.000000  1.000000  1.000000
 FoFCou: FMM=F IPFlag=           0 FMFlag=      100000 FMFlg1=           0
         NFxFlg=           0 DoJE=T BraDBF=F KetDBF=T FulRan=T
         wScrn=  0.000000 ICntrl=       500 IOpCl=  0 I1Cent=   200000004 NGrid=           0
         NMat0=    1 NMatS0=      1 NMatT0=    0 NMatD0=    1 NMtDS0=    0 NMtDT0=    0
 Petite list used in FoFCou.
 Initial guess orbital symmetries:
       Occupied  (SG) (SG) (SG) (PI) (PI)
       Virtual   (SG) (SG) (PI) (PI) (SG) (SG) (PI) (PI) (SG) (DLTA)
                 (DLTA) (PI) (PI) (SG)
 The electronic state of the initial guess is 1-SG.
 Keep R1 ints in memory in symmetry-blocked form, NReq=13827832.
 Requested convergence on RMS density matrix=1.00D-08 within 128 cycles.
 Requested convergence on MAX density matrix=1.00D-06.
 Requested convergence on             energy=1.00D-06.
 No special actions if energy rises.
 Integral accuracy reduced to 1.0D-05 until final iterations.
 Initial convergence to 1.0D-05 achieved.  Increase integral accuracy.
 SCF Done:  E(RB3LYP) =  -100.353225304     A.U. after    9 cycles
            NFock=  9  Conv=0.20D-08     -V/T= 2.0050
 DoSCS=F DFT=T ScalE2(SS,OS)=  1.000000  1.000000
 Range of M.O.s used for correlation:     1    19
 NBasis=    19 NAE=     5 NBE=     5 NFC=     0 NFV=     0
 NROrb=     19 NOA=     5 NOB=     5 NVA=    14 NVB=    14
   4 Symmetry operations used in ECPInt.
 ECPInt:  NShTT=      45 NPrTT=     169 LenC2=      46 LenP2D=     169.
 LDataN:  DoStor=T MaxTD1= 5 Len=  102
 Symmetrizing basis deriv contribution to polar:
 IMax=3 JMax=2 DiffMx= 0.00D+00
 G2DrvN: will do     3 centers at a time, making    1 passes.
 Calling FoFCou, ICntrl=  3107 FMM=F I1Cent=   0 AccDes= 0.00D+00.
 End of G2Drv F.D. properties file   721 does not exist.
 End of G2Drv F.D. properties file   722 does not exist.
 End of G2Drv F.D. properties file   788 does not exist.
          IDoAtm=11
          Differentiating once with respect to electric field.
                with respect to dipole field.
          Differentiating once with respect to nuclear coordinates.
 Keep R1 ints in memory in symmetry-blocked form, NReq=13773727.
          There are     9 degrees of freedom in the 1st order CPHF.  IDoFFX=6 NUNeed=     3.
      6 vectors produced by pass  0 Test12= 7.78D-16 1.11D-08 XBig12= 1.79D+00 1.17D+00.
 AX will form     6 AO Fock derivatives at one time.
      6 vectors produced by pass  1 Test12= 7.78D-16 1.11D-08 XBig12= 1.90D-01 2.28D-01.
      6 vectors produced by pass  2 Test12= 7.78D-16 1.11D-08 XBig12= 1.60D-03 1.82D-02.
      6 vectors produced by pass  3 Test12= 7.78D-16 1.11D-08 XBig12= 4.62D-07 3.62D-04.
      6 vectors produced by pass  4 Test12= 7.78D-16 1.11D-08 XBig12= 1.66D-10 7.82D-06.
      3 vectors produced by pass  5 Test12= 7.78D-16 1.11D-08 XBig12= 3.64D-14 7.01D-08.
 InvSVY:  IOpt=1 It=  1 EMax= 2.22D-16
 Solved reduced A of dimension    33 with     6 vectors.
 Isotropic polarizability for W=    0.000000        2.59 Bohr**3.
 End of Minotr F.D. properties file   721 does not exist.
 End of Minotr F.D. properties file   722 does not exist.
 End of Minotr F.D. properties file   788 does not exist.

 **********************************************************************

            Population analysis using the SCF Density.

 **********************************************************************

 Orbital symmetries:
       Occupied  (SG) (SG) (SG) (PI) (PI)
       Virtual   (SG) (SG) (PI) (PI) (SG) (SG) (PI) (PI) (SG) (DLTA)
                 (DLTA) (PI) (PI) (SG)
 The electronic state is 1-SG.
 Alpha  occ. eigenvalues --  -24.65347  -1.15201  -0.52158  -0.38431  -0.38431
 Alpha virt. eigenvalues --    0.04327   0.57029   1.12510   1.12510   1.14331
 Alpha virt. eigenvalues --    1.35425   1.46384   1.46384   2.27044   3.10207
 Alpha virt. eigenvalues --    3.10207   3.41232   3.41232   4.23807
          Condensed to atoms (all electrons):
               1          2
     1  F    8.928962   0.301920
     2  H    0.301920   0.467198
 Mulliken charges:
               1
     1  F   -0.230882
     2  H    0.230882
 Sum of Mulliken charges =  -0.00000
 Mulliken charges with hydrogens summed into heavy atoms:
               1
     1  F   -0.000000
 APT charges:
               1
     1  F   -0.379310
     2  H    0.379310
 Sum of APT charges =  -0.00000
 APT charges with hydrogens summed into heavy atoms:
               1
     1  F   -0.000000
 Electronic spatial extent (au):  <R**2>=             13.3439
 Charge=             -0.0000 electrons
 Dipole moment (field-independent basis, Debye):
    X=              0.0000    Y=              0.0000    Z=             -1.8506  Tot=              1.8506
 Quadrupole moment (field-independent basis, Debye-Ang):
   XX=             -5.3799   YY=             -5.3799   ZZ=             -3.4909
   XY=              0.0000   XZ=              0.0000   YZ=              0.0000
 Traceless Quadrupole moment (field-independent basis, Debye-Ang):
   XX=             -0.6297   YY=             -0.6297   ZZ=              1.2593
   XY=              0.0000   XZ=              0.0000   YZ=              0.0000
 Octapole moment (field-independent basis, Debye-Ang**2):
  XXX=              0.0000  YYY=              0.0000  ZZZ=             -1.6812  XYY=              0.0000
  XXY=              0.0000  XXZ=             -0.1313  XZZ=              0.0000  YZZ=              0.0000
  YYZ=             -0.1313  XYZ=              0.0000
 Hexadecapole moment (field-independent basis, Debye-Ang**3):
 XXXX=             -2.8943 YYYY=             -2.8943 ZZZZ=             -2.9651 XXXY=              0.0000
 XXXZ=              0.0000 YYYX=              0.0000 YYYZ=              0.0000 ZZZX=              0.0000
 ZZZY=              0.0000 XXYY=             -0.9648 XXZZ=             -1.2259 YYZZ=             -1.2259
 XXYZ=              0.0000 YYXZ=              0.0000 ZZXY=              0.0000
 N-N= 5.149864725649D+00 E-N=-2.503811758217D+02  KE= 9.985393544119D+01
 Symmetry A1   KE= 8.709649485671D+01
 Symmetry A2   KE= 2.145261564984D-52
 Symmetry B1   KE= 6.378720292242D+00
 Symmetry B2   KE= 6.378720292242D+00
  Exact polarizability:       1.700       0.000       1.700      -0.000      -0.000       4.368
 Approx polarizability:       1.784      -0.000       1.784      -0.000      -0.000       5.489
   4 Symmetry operations used in ECPInt.
 ECPInt:  NShTT=      45 NPrTT=     169 LenC2=      46 LenP2D=     169.
 LDataN:  DoStor=T MaxTD1= 6 Len=  172
 Calling FoFJK, ICntrl=    100127 FMM=F ISym2X=1 I1Cent= 0 IOpClX= 0 NMat=1 NMatS=1 NMatT=0.
 Full mass-weighted force constant matrix:
 Low frequencies ---   -0.0020   -0.0020   -0.0010   24.6925   24.6925 4078.9206
 Diagonal vibrational polarizability:
        0.0000000       0.0000000       0.1529829
 Harmonic frequencies (cm**-1), IR intensities (KM/Mole), Raman scattering
 activities (A**4/AMU), depolarization ratios for plane and unpolarized
 incident light, reduced masses (AMU), force constants (mDyne/A),
 and normal coordinates:
                      1
                     SG
 Frequencies --   4078.9206
 Red. masses --      1.0583
 Frc consts  --     10.3742
 IR Inten    --     94.5802
  Atom  AN      X      Y      Z
     1   9    -0.00  -0.00  -0.05
     2   1    -0.00  -0.00   1.00

 -------------------
 - Thermochemistry -
 -------------------
 Temperature   298.150 Kelvin.  Pressure   1.00000 Atm.
 Atom     1 has atomic number  9 and mass  18.99840
 Atom     2 has atomic number  1 and mass   1.00783
 Molecular mass:    20.00623 amu.
 Principal axes and moments of inertia in atomic units:
                           1         2         3
     Eigenvalues --     0.00000   2.92301   2.92301
           X            0.00000  -0.00000   1.00000
           Y            0.00000   1.00000   0.00000
           Z            1.00000   0.00000   0.00000
 This molecule is a prolate symmetric top.
 Rotational symmetry number  1.
 Rotational temperature (Kelvin)     29.63175
 Rotational constant (GHZ):         617.425459
 Zero-point vibrational energy      24397.4 (Joules/Mol)
                                    5.83111 (Kcal/Mol)
 Vibrational temperatures:   5868.66
          (Kelvin)
 
 Zero-point correction=                           0.009292 (Hartree/Particle)
 Thermal correction to Energy=                    0.011653
 Thermal correction to Enthalpy=                  0.012597
 Thermal correction to Gibbs Free Energy=        -0.007119
 Sum of electronic and zero-point Energies=           -100.343933
 Sum of electronic and thermal Energies=              -100.341572
 Sum of electronic and thermal Enthalpies=            -100.340628
 Sum of electronic and thermal Free Energies=         -100.360345
 
                     E (Thermal)             CV                S
                      KCal/Mol        Cal/Mol-Kelvin    Cal/Mol-Kelvin
 Total                    7.312              4.968             41.497
 Electronic               0.000              0.000              0.000
 Translational            0.889              2.981             34.922
 Rotational               0.592              1.987              6.575
 Vibrational              5.831              0.000              0.000
                       Q            Log10(Q)             Ln(Q)
 Total Bot       0.188211D+04          3.274646          7.540151
 Total V=0       0.353899D+08          7.548879         17.381937
 Vib (Bot)       0.531822D-04         -4.274233         -9.841786
 Vib (V=0)       0.100000D+01          0.000000          0.000000
 Electronic      0.100000D+01          0.000000          0.000000
 Translational   0.351724D+07          6.546202         15.073186
 Rotational      0.100618D+02          1.002678          2.308750
 ***** Axes restored to original set *****
 -------------------------------------------------------------------
 Center     Atomic                   Forces (Hartrees/Bohr)
 Number     Number              X              Y              Z
 -------------------------------------------------------------------
      1        9          -0.000033721   -0.000000000   -0.000000000
      2        1           0.000033721   -0.000000000   -0.000000000
 -------------------------------------------------------------------
 Cartesian Forces:  Max     0.000033721 RMS     0.000019469

 GradGradGradGradGradGradGradGradGradGradGradGradGradGradGradGradGradGrad
 Berny optimization.
 Search for a local minimum.
 Step number   1 out of a maximum of    2
 All quantities printed in internal units (Hartrees-Bohrs-Radians)
 Second derivative matrix not updated -- analytic derivatives used.
 The second derivative matrix:
                          X1        Y1        Z1        X2        Y2
           X1           0.60259
           Y1          -0.00000   0.00002
           Z1          -0.00000  -0.00000   0.00002
           X2          -0.60259   0.00000   0.00000   0.60259
           Y2           0.00000  -0.00002   0.00000  -0.00000   0.00002
           Z2           0.00000   0.00000  -0.00002  -0.00000  -0.00000
                          Z2
           Z2           0.00002
 ITU=  0
     Eigenvalues ---    0.96414
 Angle between quadratic step and forces=  26.57 degrees.
 ClnCor:  largest displacement from symmetrization is 0.00D+00 for atom     0.
 Linear search not attempted -- first point.
 ClnCor:  largest displacement from symmetrization is 0.00D+00 for atom     0.
 B after Tr=    -0.000014    0.000000    0.000000
         Rot=    1.000000    0.000000    0.000000    0.000000 Ang=   0.00 deg.
 Variable       Old X    -DE/DX   Delta X   Delta X   Delta X     New X
                                 (Linear)    (Quad)   (Total)
    X1        0.87381  -0.00003   0.00000  -0.00001  -0.00003   0.87378
    Y1        0.00000  -0.00000   0.00000   0.00000   0.00000   0.00000
    Z1        0.00000  -0.00000   0.00000   0.00000   0.00000   0.00000
    X2       -0.87381   0.00003   0.00000   0.00004   0.00003  -0.87378
    Y2        0.00000  -0.00000   0.00000   0.00000   0.00000   0.00000
    Z2        0.00000  -0.00000   0.00000   0.00000   0.00000   0.00000
         Item               Value     Threshold  Converged?
 Maximum Force            0.000034     0.000450     YES
 RMS     Force            0.000019     0.000300     YES
 Maximum Displacement     0.000028     0.001800     YES
 RMS     Displacement     0.000016     0.001200     YES
 Predicted change in Energy=-9.435265D-10
 Optimization completed.
    -- Stationary point found.
 GradGradGradGradGradGradGradGradGradGradGradGradGradGradGradGradGradGrad


 ----------------------------------------------------------------------

 Electric dipole moment (input orientation):
 (Debye = 10**-18 statcoulomb cm , SI units = C m)
                  (au)            (Debye)         (10**-30 SI)
   Tot        0.728067D+00      0.185056D+01      0.617281D+01
   x         -0.728067D+00     -0.185056D+01     -0.617281D+01
   y          0.000000D+00      0.000000D+00      0.000000D+00
   z          0.000000D+00      0.000000D+00      0.000000D+00

 Dipole polarizability, Alpha (input orientation).
 (esu units = cm**3 , SI units = C**2 m**2 J**-1)
 Alpha(0;0):
               (au)            (10**-24 esu)      (10**-40 SI)
   iso        0.258917D+01      0.383675D+00      0.426896D+00
   aniso      0.266789D+01      0.395341D+00      0.439876D+00
   xx         0.436776D+01      0.647235D+00      0.720147D+00
   yx         0.000000D+00      0.000000D+00      0.000000D+00
   yy         0.169987D+01      0.251895D+00      0.280271D+00
   zx         0.000000D+00      0.000000D+00      0.000000D+00
   zy         0.000000D+00      0.000000D+00      0.000000D+00
   zz         0.169987D+01      0.251895D+00      0.280271D+00

 ----------------------------------------------------------------------

 Dipole orientation:
     9          0.00000000          0.00000000         -0.87380936
     1         -0.00000000          0.00000000          0.87380936

 Electric dipole moment (dipole orientation):
 (Debye = 10**-18 statcoulomb cm , SI units = C m)
                  (au)            (Debye)         (10**-30 SI)
   Tot        0.728067D+00      0.185056D+01      0.617281D+01
   x          0.000000D+00      0.000000D+00      0.000000D+00
   y          0.000000D+00      0.000000D+00      0.000000D+00
   z          0.728067D+00      0.185056D+01      0.617281D+01

 Dipole polarizability, Alpha (dipole orientation).
 (esu units = cm**3 , SI units = C**2 m**2 J**-1)
 Alpha(0;0):
               (au)            (10**-24 esu)      (10**-40 SI)
   iso        0.258917D+01      0.383675D+00      0.426896D+00
   aniso      0.266789D+01      0.395341D+00      0.439876D+00
   xx         0.169987D+01      0.251895D+00      0.280271D+00
   yx         0.000000D+00      0.000000D+00      0.000000D+00
   yy         0.169987D+01      0.251895D+00      0.280271D+00
   zx         0.000000D+00      0.000000D+00      0.000000D+00
   zy         0.000000D+00      0.000000D+00      0.000000D+00
   zz         0.436776D+01      0.647235D+00      0.720147D+00

 ----------------------------------------------------------------------
 Unable to Open any file for archive entry.
 1\1\GINC-HPC-074\Freq\RB3LYP\def2SVP\F1H1\root\20-Jan-2026\0\\#SP
  B3LYP/def2SVP Force geom=PrintInputOrient\\Title of your calculation\
 \0,1\F,0.4624,0.,0.\H,-0.4624,0.,0.\\Version=ES64L-G16RevC.01\State=1-
 SG\HF=-100.3532253\RMSD=2.031e-09\RMSF=1.947e-05\ZeroPoint=0.0092925\T
 hermal=0.0116529\ETot=-100.3415724\HTot=-100.3406282\GTot=-100.3603446
 \Dipole=-0.7280674,0.,0.\DipoleDeriv=-0.3047145,0.,0.,0.,-0.4166076,0.
 ,0.,0.,-0.4166076,0.3047145,0.,0.,0.,0.4166076,0.,0.,0.,0.4166076\Pola
 r=4.3677612,0.,1.6998703,0.,0.,1.6998703\Quadrupole=0.9362948,-0.46814
 74,-0.4681474,0.,0.,0.\PG=C*V [C*(H1F1)]\NImag=0\\0.60258591,0.,0.0000
 2208,0.,0.,0.00002208,-0.60258591,0.,0.,0.60258591,0.,-0.00002208,0.,0
 .,0.00002208,0.,0.,-0.00002208,0.,0.,0.00002208\\0.00003372,0.,0.,-0.0
 0003372,0.,0.\\\@
 The archive entry for this job was punched.


 IT IS THE GODS' CUSTOM TO BRING LOW ALL THINGS OF SURPASSING GREATNESS.
     -- HERODOTUS
 IT IS THE LOFTY PINE THAT BY THE STORM IS OFTENER TOSSED;
 TOWERS FALL WITH HEAVIER CRASH WHICH HIGHER SOAR.
     -- HORACE
 THE BIGGER THEY COME, THE HARDER THEY FALL.
     -- BOB FITZSIMONS HEAVYWEIGHT CHAMPION, 1897-1899
 Job cpu time:       0 days  0 hours  0 minutes 31.6 seconds.
 Elapsed time:       0 days  0 hours  0 minutes  2.2 seconds.
 File lengths (MBytes):  RWF=     17 Int=      0 D2E=      0 Chk=      2 Scr=      2
 Normal termination of Gaussian 16 at Tue Jan 20 21:11:01 2026.
